 Entering Gaussian System, Link 0=g03
 Input=he_sto14g_vb2_hf.com
 Output=he_sto14g_vb2_hf.log
 Initial command:
 /usr/local/bin/gaussian03/l1.exe /scratch/toulouse/Gau-6576.inp -scrdir=/scratch/toulouse/
 Entering Link 1 = /usr/local/bin/gaussian03/l1.exe PID=      6577.
  
 Copyright (c) 1988,1990,1992,1993,1995,1998,2003, Gaussian, Inc.
                  All Rights Reserved.
  
 This is the Gaussian(R) 03 program.  It is based on the
 the Gaussian(R) 98 system (copyright 1998, Gaussian, Inc.),
 the Gaussian(R) 94 system (copyright 1995, Gaussian, Inc.),
 the Gaussian 92(TM) system (copyright 1992, Gaussian, Inc.),
 the Gaussian 90(TM) system (copyright 1990, Gaussian, Inc.),
 the Gaussian 88(TM) system (copyright 1988, Gaussian, Inc.),
 the Gaussian 86(TM) system (copyright 1986, Carnegie Mellon
 University), and the Gaussian 82(TM) system (copyright 1983,
 Carnegie Mellon University). Gaussian is a federally registered
 trademark of Gaussian, Inc.
  
 This software contains proprietary and confidential information,
 including trade secrets, belonging to Gaussian, Inc.
  
 This software is provided under written license and may be
 used, copied, transmitted, or stored only in accord with that
 written license.
  
 The following legend is applicable only to US Government
 contracts under DFARS:
  
                    RESTRICTED RIGHTS LEGEND
  
 Use, duplication or disclosure by the US Government is subject
 to restrictions as set forth in subparagraph (c)(1)(ii) of the
 Rights in Technical Data and Computer Software clause at DFARS
 252.227-7013.
  
 Gaussian, Inc.
 Carnegie Office Park, Building 6, Pittsburgh, PA 15106 USA
  
 The following legend is applicable only to US Government
 contracts under FAR:
  
                    RESTRICTED RIGHTS LEGEND
  
 Use, reproduction and disclosure by the US Government is subject
 to restrictions as set forth in subparagraph (c) of the
 Commercial Computer Software - Restricted Rights clause at FAR
 52.227-19.
  
 Gaussian, Inc.
 Carnegie Office Park, Building 6, Pittsburgh, PA 15106 USA
  
  
 ---------------------------------------------------------------
 Warning -- This program may not be used in any manner that
 competes with the business of Gaussian, Inc. or will provide
 assistance to any competitor of Gaussian, Inc.  The licensee
 of this program is prohibited from giving any competitor of
 Gaussian, Inc. access to this program.  By using this program,
 the user acknowledges that Gaussian, Inc. is engaged in the
 business of creating and licensing software in the field of
 computational chemistry and represents and warrants to the
 licensee that it is not a competitor of Gaussian, Inc. and that
 it will not use this program in any manner prohibited above.
 ---------------------------------------------------------------
  

 Cite this work as:
 Gaussian 03, Revision B.02,
 M. J. Frisch, G. W. Trucks, H. B. Schlegel, G. E. Scuseria, 
 M. A. Robb, J. R. Cheeseman, J. A. Montgomery, Jr., T. Vreven, 
 K. N. Kudin, J. C. Burant, J. M. Millam, S. S. Iyengar, J. Tomasi, 
 V. Barone, B. Mennucci, M. Cossi, G. Scalmani, N. Rega, 
 G. A. Petersson, H. Nakatsuji, M. Hada, M. Ehara, K. Toyota, 
 R. Fukuda, J. Hasegawa, M. Ishida, T. Nakajima, Y. Honda, O. Kitao, 
 H. Nakai, M. Klene, X. Li, J. E. Knox, H. P. Hratchian, J. B. Cross, 
 C. Adamo, J. Jaramillo, R. Gomperts, R. E. Stratmann, O. Yazyev, 
 A. J. Austin, R. Cammi, C. Pomelli, J. W. Ochterski, P. Y. Ayala, 
 K. Morokuma, G. A. Voth, P. Salvador, J. J. Dannenberg, 
 V. G. Zakrzewski, S. Dapprich, A. D. Daniels, M. C. Strain, 
 O. Farkas, D. K. Malick, A. D. Rabuck, K. Raghavachari, 
 J. B. Foresman, J. V. Ortiz, Q. Cui, A. G. Baboul, S. Clifford, 
 J. Cioslowski, B. B. Stefanov, G. Liu, A. Liashenko, P. Piskorz, 
 I. Komaromi, R. L. Martin, D. J. Fox, T. Keith, M. A. Al-Laham, 
 C. Y. Peng, A. Nanayakkara, M. Challacombe, P. M. W. Gill, 
 B. Johnson, W. Chen, M. W. Wong, C. Gonzalez, and J. A. Pople, 
 Gaussian, Inc., Pittsburgh PA, 2003.
 
 **********************************************
 Gaussian 03:  x86-Linux-G03RevB.02 16-Apr-2003
                  20-Feb-2009 
 **********************************************
 --------------------------------------------------------
 #p rhf gen pop=full 5d scf=(tight,nodirect,maxcycle=500)
 --------------------------------------------------------
 1/38=1/1;
 2/17=6,18=5,40=1/2;
 3/5=7,8=1,11=1,16=1,25=14,30=1/1,2,3,11,14;
 4/7=1/1;
 5/5=1,7=500,32=2/2;
 6/7=3,28=1/1;
 99/5=1,9=1/99;
 Leave Link    1 at Fri Feb 20 18:19:58 2009, MaxMem=          0 cpu:       0.2
 (Enter /usr/local/bin/gaussian03/l101.exe)
 ----------------
 He sto14g_vb2 hf
 ----------------
 Symbolic Z-matrix:
 Charge =  0 Multiplicity = 1
 He
 
                    Isotopes and Nuclear Properties:

  Atom         1
 IAtWgt=           4
 AtmWgt=   4.0026032
 IAtSpn=           0
 AtZEff=   0.0000000
 AtQMom=   0.0000000
 AtGFac=   0.0000000
 Leave Link  101 at Fri Feb 20 18:19:58 2009, MaxMem=    6291456 cpu:       0.1
 (Enter /usr/local/bin/gaussian03/l202.exe)
                          Input orientation:                          
 ---------------------------------------------------------------------
 Center     Atomic     Atomic              Coordinates (Angstroms)
 Number     Number      Type              X           Y           Z
 ---------------------------------------------------------------------
    1          2             0        0.000000    0.000000    0.000000
 ---------------------------------------------------------------------
 Stoichiometry    He
 Framework group  OH[O(He)]
 Deg. of freedom     0
 Full point group                 OH      NOp  48
 Largest Abelian subgroup         D2H     NOp   8
 Largest concise Abelian subgroup C1      NOp   1
                         Standard orientation:                         
 ---------------------------------------------------------------------
 Center     Atomic     Atomic              Coordinates (Angstroms)
 Number     Number      Type              X           Y           Z
 ---------------------------------------------------------------------
    1          2             0        0.000000    0.000000    0.000000
 ---------------------------------------------------------------------
 Leave Link  202 at Fri Feb 20 18:19:58 2009, MaxMem=    6291456 cpu:       0.1
 (Enter /usr/local/bin/gaussian03/l301.exe)
 General basis read from cards:  (5D, 7F)
 Centers:   1
 S 14 1.00
     Exponent=  1.3943212837E+04 Coefficients=  3.2071900000E-05
     Exponent=  2.5610231406E+03 Coefficients=  1.8086870000E-04
     Exponent=  7.1760961327E+02 Coefficients=  7.1573290000E-04
     Exponent=  2.4732818457E+02 Coefficients=  2.3271373000E-03
     Exponent=  9.7040897155E+01 Coefficients=  6.6210333000E-03
     Exponent=  4.1705831348E+01 Coefficients=  1.6968582700E-02
     Exponent=  1.9196006555E+01 Coefficients=  3.9565970900E-02
     Exponent=  9.3253820453E+00 Coefficients=  8.3424647400E-02
     Exponent=  4.7332271839E+00 Coefficients=  1.5510281130E-01
     Exponent=  2.4910973461E+00 Coefficients=  2.4134684730E-01
     Exponent=  1.3509009734E+00 Coefficients=  2.8629429070E-01
     Exponent=  7.4986818630E-01 Coefficients=  2.2062451780E-01
     Exponent=  4.2166079860E-01 Coefficients=  8.3307086400E-02
     Exponent=  2.3364020120E-01 Coefficients=  8.4882404000E-03
 S 14 1.00
     Exponent=  8.2586572209E+03 Coefficients=  3.2071900000E-05
     Exponent=  1.5169109516E+03 Coefficients=  1.8086870000E-04
     Exponent=  4.2504492213E+02 Coefficients=  7.1573290000E-04
     Exponent=  1.4649412021E+02 Coefficients=  2.3271373000E-03
     Exponent=  5.7477965472E+01 Coefficients=  6.6210333000E-03
     Exponent=  2.4702639861E+01 Coefficients=  1.6968582700E-02
     Exponent=  1.1369921696E+01 Coefficients=  3.9565970900E-02
     Exponent=  5.5234854884E+00 Coefficients=  8.3424647400E-02
     Exponent=  2.8035217792E+00 Coefficients=  1.5510281130E-01
     Exponent=  1.4754934408E+00 Coefficients=  2.4134684730E-01
     Exponent=  8.0014758500E-01 Coefficients=  2.8629429070E-01
     Exponent=  4.4415188840E-01 Coefficients=  2.2062451780E-01
     Exponent=  2.4975248100E-01 Coefficients=  8.3307086400E-02
     Exponent=  1.3838663710E-01 Coefficients=  8.4882404000E-03
 S 14 1.00
     Exponent=  4.4668458403E+03 Coefficients=  3.2071900000E-05
     Exponent=  8.2044903827E+02 Coefficients=  1.8086870000E-04
     Exponent=  2.2989332183E+02 Coefficients=  7.1573290000E-04
     Exponent=  7.9234024851E+01 Coefficients=  2.3271373000E-03
     Exponent=  3.1088009117E+01 Coefficients=  6.6210333000E-03
     Exponent=  1.3360874675E+01 Coefficients=  1.6968582700E-02
     Exponent=  6.1496301488E+00 Coefficients=  3.9565970900E-02
     Exponent=  2.9874781720E+00 Coefficients=  8.3424647400E-02
     Exponent=  1.5163360414E+00 Coefficients=  1.5510281130E-01
     Exponent=  7.9804761990E-01 Coefficients=  2.4134684730E-01
     Exponent=  4.3277445910E-01 Coefficients=  2.8629429070E-01
     Exponent=  2.4022767410E-01 Coefficients=  2.2062451780E-01
     Exponent=  1.3508319830E-01 Coefficients=  8.3307086400E-02
     Exponent=  7.4848944300E-02 Coefficients=  8.4882404000E-03
 S 14 1.00
     Exponent=  9.0140908703E+02 Coefficients= -1.2553700000E-05
     Exponent=  1.6579847828E+02 Coefficients= -7.0674200000E-05
     Exponent=  4.6482925753E+01 Coefficients= -2.7900630000E-04
     Exponent=  1.6023516808E+01 Coefficients= -9.0255170000E-04
     Exponent=  6.2846889615E+00 Coefficients= -2.5396378000E-03
     Exponent=  2.6963738560E+00 Coefficients= -6.3584976000E-03
     Exponent=  1.2351864500E+00 Coefficients= -1.4091246000E-02
     Exponent=  5.9424464870E-01 Coefficients= -2.6247762900E-02
     Exponent=  2.9722758240E-01 Coefficients= -3.3835501600E-02
     Exponent=  8.2792551200E-02 Coefficients=  1.3631656440E-01
     Exponent=  4.6121572900E-02 Coefficients=  3.4661510090E-01
     Exponent=  2.6502732800E-02 Coefficients=  3.9439143290E-01
     Exponent=  1.5531951600E-02 Coefficients=  1.7946695490E-01
     Exponent=  9.0209402000E-03 Coefficients=  1.9147910400E-02
 P 14 1.00
     Exponent=  1.4052143873E+03 Coefficients=  2.9619547200E-02
     Exponent=  3.6715030613E+02 Coefficients=  4.0237892100E-02
     Exponent=  1.3178105256E+02 Coefficients=  5.4468708100E-02
     Exponent=  5.5475509330E+01 Coefficients=  7.1792505100E-02
     Exponent=  2.5825260716E+01 Coefficients=  9.1661944300E-02
     Exponent=  1.2900838213E+01 Coefficients=  1.1242641350E-01
     Exponent=  6.7939226671E+00 Coefficients=  1.3027764080E-01
     Exponent=  3.7302172343E+00 Coefficients=  1.3862499910E-01
     Exponent=  2.1193578428E+00 Coefficients=  1.2957962900E-01
     Exponent=  1.2387995755E+00 Coefficients=  9.9401534600E-02
     Exponent=  7.4094327230E-01 Coefficients=  5.6339148300E-02
     Exponent=  4.5062745240E-01 Coefficients=  1.9990989600E-02
     Exponent=  2.7581846610E-01 Coefficients=  3.3455882000E-03
     Exponent=  1.6547557560E-01 Coefficients=  1.4334460000E-04
 P 14 1.00
     Exponent=  6.4195532796E+01 Coefficients=  2.9619547200E-02
     Exponent=  1.6772821095E+01 Coefficients=  4.0237892100E-02
     Exponent=  6.0202592274E+00 Coefficients=  5.4468708100E-02
     Exponent=  2.5343320640E+00 Coefficients=  7.1792505100E-02
     Exponent=  1.1797960413E+00 Coefficients=  9.1661944300E-02
     Exponent=  5.8935931060E-01 Coefficients=  1.1242641350E-01
     Exponent=  3.1037220320E-01 Coefficients=  1.3027764080E-01
     Exponent=  1.7041049750E-01 Coefficients=  1.3862499910E-01
     Exponent=  9.6820319500E-02 Coefficients=  1.2957962900E-01
     Exponent=  5.6593071800E-02 Coefficients=  9.9401534600E-02
     Exponent=  3.3849104100E-02 Coefficients=  5.6339148300E-02
     Exponent=  2.0586374300E-02 Coefficients=  1.9990989600E-02
     Exponent=  1.2600435600E-02 Coefficients=  3.3455882000E-03
     Exponent=  7.5595531000E-03 Coefficients=  1.4334460000E-04
 D 14 1.00
     Exponent=  4.9533816663E+02 Coefficients=  7.2118000000E-06
     Exponent=  1.5950689644E+02 Coefficients=  6.4571700000E-05
     Exponent=  6.6645435476E+01 Coefficients=  3.7063260000E-04
     Exponent=  3.1794924247E+01 Coefficients=  1.6457152000E-03
     Exponent=  1.6507193114E+01 Coefficients=  6.0632133000E-03
     Exponent=  9.1007070356E+00 Coefficients=  1.9041369000E-02
     Exponent=  5.2506257415E+00 Coefficients=  5.1097954700E-02
     Exponent=  3.1395837738E+00 Coefficients=  1.1516292570E-01
     Exponent=  1.9320300746E+00 Coefficients=  2.0989436970E-01
     Exponent=  1.2167501051E+00 Coefficients=  2.9045960980E-01
     Exponent=  7.8013739700E-01 Coefficients=  2.7670011310E-01
     Exponent=  5.0613149400E-01 Coefficients=  1.5566086220E-01
     Exponent=  3.2897651660E-01 Coefficients=  3.9819182800E-02
     Exponent=  2.0895744700E-01 Coefficients=  2.6244430000E-03
 ****
 There are     6 symmetry adapted basis functions of AG  symmetry.
 There are     1 symmetry adapted basis functions of B1G symmetry.
 There are     1 symmetry adapted basis functions of B2G symmetry.
 There are     1 symmetry adapted basis functions of B3G symmetry.
 There are     0 symmetry adapted basis functions of AU  symmetry.
 There are     2 symmetry adapted basis functions of B1U symmetry.
 There are     2 symmetry adapted basis functions of B2U symmetry.
 There are     2 symmetry adapted basis functions of B3U symmetry.
 Integral buffers will be    262144 words long.
 Raffenetti 1 integral format.
 Two-electron integral symmetry is turned on.
    15 basis functions,   224 primitive gaussians,    16 cartesian basis functions
     1 alpha electrons        1 beta electrons
       nuclear repulsion energy         0.0000000000 Hartrees.
 IExCor=   0 DFT=F Ex=HF Corr=None ExCW=0 ScaHFX=  1.000000
 ScaDFX=  1.000000  1.000000  1.000000  1.000000
 IRadAn=      0 IRanWt=     -1 IRanGd=            0 ICorTp=0
 NAtoms=    1 NActive=    1 NUniq=    1 SFac= 1.00E+00 NAtFMM=   60 Big=F
 Leave Link  301 at Fri Feb 20 18:19:59 2009, MaxMem=    6291456 cpu:       0.1
 (Enter /usr/local/bin/gaussian03/l302.exe)
 NPDir=0 NMtPBC=     1 NCelOv=     1 NCel=       1 NClECP=     1 NCelD=      1
         NCelK=      1 NCelE2=     1 NClLst=     1 CellRange=     0.0.
 One-electron integrals computed using PRISM.
 NBasis=    15 RedAO= T  NBF=     6     1     1     1     0     2     2     2
 NBsUse=    15 1.00E-06 NBFU=     6     1     1     1     0     2     2     2
 Leave Link  302 at Fri Feb 20 18:19:59 2009, MaxMem=    6291456 cpu:       0.2
 (Enter /usr/local/bin/gaussian03/l303.exe)
 DipDrv:  MaxL=1.
 Leave Link  303 at Fri Feb 20 18:19:59 2009, MaxMem=    6291456 cpu:       0.0
 (Enter /usr/local/bin/gaussian03/l311.exe)
 Out2e will use a cutoff of  1.00E-10
 Standard cutoffs selected in Shell.
          328 integrals produced for a total of          328.
 Leave Link  311 at Fri Feb 20 18:20:01 2009, MaxMem=    6291456 cpu:       1.0
 (Enter /usr/local/bin/gaussian03/l314.exe)
 Phoenix requires     267328 words of memory.
 Out2e will use a cutoff of  1.00E-10
 Standard cutoffs used.
 PQCut1= 1.00E-20 PQCut2= 1.00E-20 PQCut3= 1.00E+02
          690 integrals produced for a total of         1018.
 PHOENIX SHELL PASSES=     175  NUMBER PROCESSED=      84
          FAST PASSES=     175
 Leave Link  314 at Fri Feb 20 18:20:20 2009, MaxMem=    6291456 cpu:      19.2
 (Enter /usr/local/bin/gaussian03/l401.exe)
 Harris functional with IExCor=  205 diagonalized for initial guess.
 ExpMin= 7.56E-03 ExpMax= 1.39E+04 ExpMxC= 1.41E+03 IAcc=3 IRadAn=         5 AccDes= 0.00E+00
 HarFok:  IExCor= 205 AccDes= 0.00E+00 IRadAn=         5 IDoV=1
 ScaDFX=  1.000000  1.000000  1.000000  1.000000
 Harris En= -2.87261726873256    
 Initial guess orbital symmetries:
       Occupied  (A1G)
       Virtual   (A1G) (A1G) (T1U) (T1U) (T1U) (T2G) (T2G) (T2G)
                 (EG) (EG) (A1G) (T1U) (T1U) (T1U)
 The electronic state of the initial guess is 1-A1G.
 Leave Link  401 at Fri Feb 20 18:20:21 2009, MaxMem=    6291456 cpu:       0.2
 (Enter /usr/local/bin/gaussian03/l502.exe)
 Closed shell SCF:
 Requested convergence on RMS density matrix=1.00E-08 within 500 cycles.
 Requested convergence on MAX density matrix=1.00E-06.
 Requested convergence on             energy=1.00E-06.
 No special actions if energy rises.
 Using DIIS extrapolation, IDIIS=  1040.
 Unsorted integral processing.
 Integral symmetry usage will be decided dynamically.
 Two-electron integrals will be kept in memory, NGetB=      385471.
 IEnd=    385471 IEndB=    385471 NGot=   6291456 MDV=   6037057
 LenX=   5774913

 Cycle   1  Pass 1  IDiag  1:
 E= -2.85853593462062    
 DIIS: error= 1.45E-02 at cycle   1 NSaved=   1.
 NSaved= 1 IEnMin= 1 EnMin= -2.85853593462062     IErMin= 1 ErrMin= 1.45E-02
 ErrMax= 1.45E-02 EMaxC= 1.00E-01 BMatC= 2.15E-03 BMatP= 2.15E-03
 IDIUse=3 WtCom= 8.55E-01 WtEn= 1.45E-01
 Coeff-Com:  0.100E+01
 Coeff-En:   0.100E+01
 Coeff:      0.100E+01
 Gap=     1.008 Goal=   None    Shift=    0.000
 GapD=    1.008 DampG=2.000 DampE=0.500 DampFc=1.0000 IDamp=-1.
 RMSDP=4.60E-02 MaxDP=3.29E-01              OVMax= 2.98E-02

 Cycle   2  Pass 1  IDiag  1:
 E= -2.86152905054200     Delta-E=       -0.002993115921 Rises=F Damp=F
 DIIS: error= 2.86E-03 at cycle   2 NSaved=   2.
 NSaved= 2 IEnMin= 2 EnMin= -2.86152905054200     IErMin= 2 ErrMin= 2.86E-03
 ErrMax= 2.86E-03 EMaxC= 1.00E-01 BMatC= 5.33E-05 BMatP= 2.15E-03
 IDIUse=3 WtCom= 9.71E-01 WtEn= 2.86E-02
 Coeff-Com: -0.139E+00 0.114E+01
 Coeff-En:   0.000E+00 0.100E+01
 Coeff:     -0.135E+00 0.113E+01
 Gap=     0.990 Goal=   None    Shift=    0.000
 RMSDP=5.87E-03 MaxDP=4.24E-02 DE=-2.99E-03 OVMax= 5.05E-03

 Cycle   3  Pass 1  IDiag  1:
 E= -2.86159445142161     Delta-E=       -0.000065400880 Rises=F Damp=F
 DIIS: error= 1.71E-04 at cycle   3 NSaved=   3.
 NSaved= 3 IEnMin= 3 EnMin= -2.86159445142161     IErMin= 3 ErrMin= 1.71E-04
 ErrMax= 1.71E-04 EMaxC= 1.00E-01 BMatC= 2.65E-07 BMatP= 5.33E-05
 IDIUse=3 WtCom= 9.98E-01 WtEn= 1.71E-03
 Coeff-Com:  0.984E-02-0.115E+00 0.110E+01
 Coeff-En:   0.000E+00 0.000E+00 0.100E+01
 Coeff:      0.982E-02-0.114E+00 0.110E+01
 Gap=     0.990 Goal=   None    Shift=    0.000
 RMSDP=8.72E-05 MaxDP=5.39E-04 DE=-6.54E-05 OVMax= 4.30E-04

 Cycle   4  Pass 1  IDiag  1:
 E= -2.86159483819868     Delta-E=       -0.000000386777 Rises=F Damp=F
 DIIS: error= 1.48E-05 at cycle   4 NSaved=   4.
 NSaved= 4 IEnMin= 4 EnMin= -2.86159483819868     IErMin= 4 ErrMin= 1.48E-05
 ErrMax= 1.48E-05 EMaxC= 1.00E-01 BMatC= 1.35E-09 BMatP= 2.65E-07
 IDIUse=1 WtCom= 1.00E+00 WtEn= 0.00E+00
 Coeff-Com: -0.138E-02 0.172E-01-0.210E+00 0.119E+01
 Coeff:     -0.138E-02 0.172E-01-0.210E+00 0.119E+01
 Gap=     0.990 Goal=   None    Shift=    0.000
 RMSDP=2.58E-05 MaxDP=2.23E-04 DE=-3.87E-07 OVMax= 4.40E-05

 Cycle   5  Pass 1  IDiag  1:
 E= -2.86159484137154     Delta-E=       -0.000000003173 Rises=F Damp=F
 DIIS: error= 1.15E-07 at cycle   5 NSaved=   5.
 NSaved= 5 IEnMin= 5 EnMin= -2.86159484137154     IErMin= 5 ErrMin= 1.15E-07
 ErrMax= 1.15E-07 EMaxC= 1.00E-01 BMatC= 9.45E-14 BMatP= 1.35E-09
 IDIUse=1 WtCom= 1.00E+00 WtEn= 0.00E+00
 Coeff-Com:  0.122E-05-0.112E-03 0.183E-02-0.123E-01 0.101E+01
 Coeff:      0.122E-05-0.112E-03 0.183E-02-0.123E-01 0.101E+01
 Gap=     0.990 Goal=   None    Shift=    0.000
 RMSDP=2.08E-07 MaxDP=1.68E-06 DE=-3.17E-09 OVMax= 2.29E-07

 Cycle   6  Pass 1  IDiag  1:
 E= -2.86159484137167     Delta-E=        0.000000000000 Rises=F Damp=F
 DIIS: error= 1.89E-10 at cycle   6 NSaved=   6.
 NSaved= 6 IEnMin= 6 EnMin= -2.86159484137167     IErMin= 6 ErrMin= 1.89E-10
 ErrMax= 1.89E-10 EMaxC= 1.00E-01 BMatC= 2.55E-19 BMatP= 9.45E-14
 IDIUse=1 WtCom= 1.00E+00 WtEn= 0.00E+00
 Coeff-Com:  0.268E-11-0.111E-09 0.495E-07-0.682E-06-0.165E-02 0.100E+01
 Coeff:      0.268E-11-0.111E-09 0.495E-07-0.682E-06-0.165E-02 0.100E+01
 Gap=     0.990 Goal=   None    Shift=    0.000
 RMSDP=3.24E-10 MaxDP=2.62E-09 DE=-1.28E-13 OVMax= 3.77E-10

 SCF Done:  E(RHF) =  -2.86159484137     A.U. after    6 cycles
             Convg  =    0.3244E-09             -V/T =  2.0010
             S**2   =   0.0000
 KE= 2.858878040506E+00 PE=-6.745711778506E+00 EE= 1.025238896629E+00
 Leave Link  502 at Fri Feb 20 18:20:21 2009, MaxMem=    6291456 cpu:       0.0
 (Enter /usr/local/bin/gaussian03/l601.exe)
 Copying SCF densities to generalized density rwf, ISCF=0 IROHF=0.

 **********************************************************************

            Population analysis using the SCF density.

 **********************************************************************

 Orbital symmetries:
       Occupied  (A1G)
       Virtual   (A1G) (A1G) (T1U) (T1U) (T1U) (EG) (T2G) (T2G)
                 (T2G) (EG) (A1G) (T1U) (T1U) (T1U)
 The electronic state is 1-A1G.
 Alpha  occ. eigenvalues --   -0.91818
 Alpha virt. eigenvalues --    0.07228   0.93188   1.00398   1.00398   1.00398
 Alpha virt. eigenvalues --    4.04285   4.04285   4.04285   4.04285   4.04285
 Alpha virt. eigenvalues --    6.71122  48.38466  48.38466  48.38466
     Molecular Orbital Coefficients
                           1         2         3         4         5
                       (A1G)--O  (A1G)--V  (A1G)--V  (T1U)--V  (T1U)--V
     EIGENVALUES --    -0.91818   0.07228   0.93188   1.00398   1.00398
   1 1   He 1S          0.34738  -0.76602  -4.82797   0.00000   0.00000
   2        2S         -0.22461   1.95358  12.80497   0.00000   0.00000
   3        3S          0.90416  -1.58429  -8.37733   0.00000   0.00000
   4        4S         -0.00266   1.16712   0.62536   0.00000   0.00000
   5        5PX         0.00000   0.00000   0.00000   0.00000   0.00000
   6        5PY         0.00000   0.00000   0.00000   0.00000  -0.12554
   7        5PZ         0.00000   0.00000   0.00000  -0.12554   0.00000
   8        6PX         0.00000   0.00000   0.00000   0.00000   0.00000
   9        6PY         0.00000   0.00000   0.00000   0.00000   1.06298
  10        6PZ         0.00000   0.00000   0.00000   1.06298   0.00000
  11        7D 0        0.00000   0.00000   0.00000   0.00000   0.00000
  12        7D+1        0.00000   0.00000   0.00000   0.00000   0.00000
  13        7D-1        0.00000   0.00000   0.00000   0.00000   0.00000
  14        7D+2        0.00000   0.00000   0.00000   0.00000   0.00000
  15        7D-2        0.00000   0.00000   0.00000   0.00000   0.00000
                           6         7         8         9        10
                       (T1U)--V   (EG)--V  (T2G)--V  (T2G)--V  (T2G)--V
     EIGENVALUES --     1.00398   4.04285   4.04285   4.04285   4.04285
   1 1   He 1S          0.00000   0.00000   0.00000   0.00000   0.00000
   2        2S          0.00000   0.00000   0.00000   0.00000   0.00000
   3        3S          0.00000   0.00000   0.00000   0.00000   0.00000
   4        4S          0.00000   0.00000   0.00000   0.00000   0.00000
   5        5PX        -0.12554   0.00000   0.00000   0.00000   0.00000
   6        5PY         0.00000   0.00000   0.00000   0.00000   0.00000
   7        5PZ         0.00000   0.00000   0.00000   0.00000   0.00000
   8        6PX         1.06298   0.00000   0.00000   0.00000   0.00000
   9        6PY         0.00000   0.00000   0.00000   0.00000   0.00000
  10        6PZ         0.00000   0.00000   0.00000   0.00000   0.00000
  11        7D 0        0.00000   0.10891   0.00000   0.00000   0.00000
  12        7D+1        0.00000   0.00000   0.00000   1.00000   0.00000
  13        7D-1        0.00000   0.00000   0.00000   0.00000   1.00000
  14        7D+2        0.00000   0.99405   0.00000   0.00000   0.00000
  15        7D-2        0.00000   0.00000   1.00000   0.00000   0.00000
                          11        12        13        14        15
                        (EG)--V  (A1G)--V  (T1U)--V  (T1U)--V  (T1U)--V
     EIGENVALUES --     4.04285   6.71122  48.38466  48.38466  48.38466
   1 1   He 1S          0.00000 -12.38010   0.00000   0.00000   0.00000
   2        2S          0.00000  21.00555   0.00000   0.00000   0.00000
   3        3S          0.00000  -9.37880   0.00000   0.00000   0.00000
   4        4S          0.00000   0.40809   0.00000   0.00000   0.00000
   5        5PX         0.00000   0.00000   0.00000   0.00000   1.18689
   6        5PY         0.00000   0.00000   0.00000   1.18689   0.00000
   7        5PZ         0.00000   0.00000   1.18689   0.00000   0.00000
   8        6PX         0.00000   0.00000   0.00000   0.00000  -0.54270
   9        6PY         0.00000   0.00000   0.00000  -0.54270   0.00000
  10        6PZ         0.00000   0.00000  -0.54270   0.00000   0.00000
  11        7D 0        0.99405   0.00000   0.00000   0.00000   0.00000
  12        7D+1        0.00000   0.00000   0.00000   0.00000   0.00000
  13        7D-1        0.00000   0.00000   0.00000   0.00000   0.00000
  14        7D+2       -0.10891   0.00000   0.00000   0.00000   0.00000
  15        7D-2        0.00000   0.00000   0.00000   0.00000   0.00000
      DENSITY MATRIX.
                           1         2         3         4         5
   1 1   He 1S          0.24134
   2        2S         -0.15605   0.10090
   3        3S          0.62817  -0.40616   1.63502
   4        4S         -0.00185   0.00120  -0.00482   0.00001
   5        5PX         0.00000   0.00000   0.00000   0.00000   0.00000
   6        5PY         0.00000   0.00000   0.00000   0.00000   0.00000
   7        5PZ         0.00000   0.00000   0.00000   0.00000   0.00000
   8        6PX         0.00000   0.00000   0.00000   0.00000   0.00000
   9        6PY         0.00000   0.00000   0.00000   0.00000   0.00000
  10        6PZ         0.00000   0.00000   0.00000   0.00000   0.00000
  11        7D 0        0.00000   0.00000   0.00000   0.00000   0.00000
  12        7D+1        0.00000   0.00000   0.00000   0.00000   0.00000
  13        7D-1        0.00000   0.00000   0.00000   0.00000   0.00000
  14        7D+2        0.00000   0.00000   0.00000   0.00000   0.00000
  15        7D-2        0.00000   0.00000   0.00000   0.00000   0.00000
                           6         7         8         9        10
   6        5PY         0.00000
   7        5PZ         0.00000   0.00000
   8        6PX         0.00000   0.00000   0.00000
   9        6PY         0.00000   0.00000   0.00000   0.00000
  10        6PZ         0.00000   0.00000   0.00000   0.00000   0.00000
  11        7D 0        0.00000   0.00000   0.00000   0.00000   0.00000
  12        7D+1        0.00000   0.00000   0.00000   0.00000   0.00000
  13        7D-1        0.00000   0.00000   0.00000   0.00000   0.00000
  14        7D+2        0.00000   0.00000   0.00000   0.00000   0.00000
  15        7D-2        0.00000   0.00000   0.00000   0.00000   0.00000
                          11        12        13        14        15
  11        7D 0        0.00000
  12        7D+1        0.00000   0.00000
  13        7D-1        0.00000   0.00000   0.00000
  14        7D+2        0.00000   0.00000   0.00000   0.00000
  15        7D-2        0.00000   0.00000   0.00000   0.00000   0.00000
    Full Mulliken population analysis:
                           1         2         3         4         5
   1 1   He 1S          0.24134
   2        2S         -0.15210   0.10090
   3        3S          0.55721  -0.39209   1.63502
   4        4S         -0.00026   0.00026  -0.00167   0.00001
   5        5PX         0.00000   0.00000   0.00000   0.00000   0.00000
   6        5PY         0.00000   0.00000   0.00000   0.00000   0.00000
   7        5PZ         0.00000   0.00000   0.00000   0.00000   0.00000
   8        6PX         0.00000   0.00000   0.00000   0.00000   0.00000
   9        6PY         0.00000   0.00000   0.00000   0.00000   0.00000
  10        6PZ         0.00000   0.00000   0.00000   0.00000   0.00000
  11        7D 0        0.00000   0.00000   0.00000   0.00000   0.00000
  12        7D+1        0.00000   0.00000   0.00000   0.00000   0.00000
  13        7D-1        0.00000   0.00000   0.00000   0.00000   0.00000
  14        7D+2        0.00000   0.00000   0.00000   0.00000   0.00000
  15        7D-2        0.00000   0.00000   0.00000   0.00000   0.00000
                           6         7         8         9        10
   6        5PY         0.00000
   7        5PZ         0.00000   0.00000
   8        6PX         0.00000   0.00000   0.00000
   9        6PY         0.00000   0.00000   0.00000   0.00000
  10        6PZ         0.00000   0.00000   0.00000   0.00000   0.00000
  11        7D 0        0.00000   0.00000   0.00000   0.00000   0.00000
  12        7D+1        0.00000   0.00000   0.00000   0.00000   0.00000
  13        7D-1        0.00000   0.00000   0.00000   0.00000   0.00000
  14        7D+2        0.00000   0.00000   0.00000   0.00000   0.00000
  15        7D-2        0.00000   0.00000   0.00000   0.00000   0.00000
                          11        12        13        14        15
  11        7D 0        0.00000
  12        7D+1        0.00000   0.00000
  13        7D-1        0.00000   0.00000   0.00000
  14        7D+2        0.00000   0.00000   0.00000   0.00000
  15        7D-2        0.00000   0.00000   0.00000   0.00000   0.00000
     Gross orbital populations:
                           1
   1 1   He 1S          0.64620
   2        2S         -0.44303
   3        3S          1.79848
   4        4S         -0.00165
   5        5PX         0.00000
   6        5PY         0.00000
   7        5PZ         0.00000
   8        6PX         0.00000
   9        6PY         0.00000
  10        6PZ         0.00000
  11        7D 0        0.00000
  12        7D+1        0.00000
  13        7D-1        0.00000
  14        7D+2        0.00000
  15        7D-2        0.00000
          Condensed to atoms (all electrons):
              1
     1  He   2.000000
 Mulliken atomic charges:
              1
     1  He   0.000000
 Sum of Mulliken charges=   0.00000
 Atomic charges with hydrogens summed into heavy atoms:
              1
     1  He   0.000000
 Sum of Mulliken charges=   0.00000
 Electronic spatial extent (au):  <R**2>=     2.3790
 Charge=     0.0000 electrons
 Dipole moment (field-independent basis, Debye):
    X=     0.0000    Y=     0.0000    Z=     0.0000  Tot=     0.0000
 Quadrupole moment (field-independent basis, Debye-Ang):
   XX=    -1.0666   YY=    -1.0666   ZZ=    -1.0666
   XY=     0.0000   XZ=     0.0000   YZ=     0.0000
 Traceless Quadrupole moment (field-independent basis, Debye-Ang):
   XX=     0.0000   YY=     0.0000   ZZ=     0.0000
   XY=     0.0000   XZ=     0.0000   YZ=     0.0000
 Octapole moment (field-independent basis, Debye-Ang**2):
  XXX=     0.0000  YYY=     0.0000  ZZZ=     0.0000  XYY=     0.0000
  XXY=     0.0000  XXZ=     0.0000  XZZ=     0.0000  YZZ=     0.0000
  YYZ=     0.0000  XYZ=     0.0000
 Hexadecapole moment (field-independent basis, Debye-Ang**3):
 XXXX=    -0.5902 YYYY=    -0.5902 ZZZZ=    -0.5902 XXXY=     0.0000
 XXXZ=     0.0000 YYYX=     0.0000 YYYZ=     0.0000 ZZZX=     0.0000
 ZZZY=     0.0000 XXYY=    -0.1967 XXZZ=    -0.1967 YYZZ=    -0.1967
 XXYZ=     0.0000 YYXZ=     0.0000 ZZXY=     0.0000
 N-N= 0.000000000000E+00 E-N=-6.745711778886E+00  KE= 2.858878040506E+00
 Symmetry AG   KE= 2.858878040505E+00
 Symmetry B1G  KE= 0.000000000000E+00
 Symmetry B2G  KE= 0.000000000000E+00
 Symmetry B3G  KE= 0.000000000000E+00
 Symmetry AU   KE= 0.000000000000E+00
 Symmetry B1U  KE= 0.000000000000E+00
 Symmetry B2U  KE= 0.000000000000E+00
 Symmetry B3U  KE= 0.000000000000E+00
 Orbital energies and kinetic energies (alpha):
                           1         2
       1  (A1G)--O     -0.91818   1.42944
       2  (A1G)--V      0.07228   0.11933
       3  (A1G)--V      0.93188   1.66355
       4  (T1U)--V      1.00398   1.26679
       5  (T1U)--V      1.00398   1.26679
       6  (T1U)--V      1.00398   1.26679
       7  (EG)--V       4.04285   4.41126
       8  (T2G)--V      4.04285   4.41126
       9  (T2G)--V      4.04285   4.41126
      10  (T2G)--V      4.04285   4.41126
      11  (EG)--V       4.04285   4.41126
      12  (A1G)--V      6.71122  11.57791
      13  (T1U)--V     48.38466  53.89838
      14  (T1U)--V     48.38466  53.89838
      15  (T1U)--V     48.38466  53.89838
 Total kinetic energy from orbitals= 2.858878040506E+00
 No NMR shielding tensors so no spin-rotation constants.
 Leave Link  601 at Fri Feb 20 18:20:21 2009, MaxMem=    6291456 cpu:       0.3
 (Enter /usr/local/bin/gaussian03/l9999.exe)
 1\1\GINC-HYDROGENE\SP\RHF\Gen\He1\TOULOUSE\20-Feb-2009\0\\#P RHF GEN P
 OP=FULL 5D SCF=(TIGHT,NODIRECT,MAXCYCLE=500)\\He sto14g_vb2 hf\\0,1\He
 \\Version=x86-Linux-G03RevB.02\State=1-A1G\HF=-2.8615948\RMSD=3.244e-1
 0\Dipole=0.,0.,0.\PG=OH [O(He1)]\\@


 IF NO USE IS MADE OF THE LABOR OF PAST AGES,
 THE WORLD MUST REMAIN ALWAYS IN THE INFANCY OF KNOWLEDGE.

                          -- CICERO
 Job cpu time:  0 days  0 hours  0 minutes 23.4 seconds.
 File lengths (MBytes):  RWF=     11 Int=      1 D2E=      0 Chk=      7 Scr=      1
 Normal termination of Gaussian 03 at Fri Feb 20 18:20:21 2009.
